TITLE = "beta_vs_x_stations"
VARIABLES = "x", "beta"
ZONE T="beta_vs_x_stations", I=5, F=POINT
1.000000000000e-01 8.026765937187e-03
2.000000000000e-01 3.834262383672e-03
3.000000000000e-01 1.892488789212e-03
4.000000000000e-01 2.808919561017e-03
5.000000000000e-01 5.344517882823e-03
